ITEM: TIMESTEP
0
ITEM: NUMBER OF ATOMS
16384
ITEM: BOX BOUNDS pp pp pp
0 32.78352602048896
0 32.78352602048896
0 32.78352602048896
ITEM: ATOMS id x y z c_pe c_voro[1] xu yu zu 
1 0 0 0 0.763473 2.15054 0 0 0 
2 1.02449 1.02449 0 0.763473 2.15054 1.02449 1.02449 0 
3 1.02449 0 1.02449 0.763473 2.15054 1.02449 0 1.02449 
4 0 1.02449 1.02449 0.763473 2.15054 0 1.02449 1.02449 
5 2.04897 0 0 0.763473 2.15054 2.04897 0 0 
6 3.07346 1.02449 0 0.763473 2.15054 3.07346 1.02449 0 
7 3.07346 0 1.02449 0.763473 2.15054 3.07346 0 1.02449 
8 2.04897 1.02449 1.02449 0.763473 2.15054 2.04897 1.02449 1.02449 
9 4.09794 0 0 0.763473 2.15054 4.09794 0 0 
12 4.09794 1.02449 1.02449 0.763473 2.15054 4.09794 1.02449 1.02449 
10 5.12243 1.02449 0 0.763473 2.15054 5.12243 1.02449 0 
11 5.12243 0 1.02449 0.763473 2.15054 5.12243 0 1.02449 
13 6.14691 0 0 0.763473 2.15054 6.14691 0 0 
16 6.14691 1.02449 1.02449 0.763473 2.15054 6.14691 1.02449 1.02449 
14 7.1714 1.02449 0 0.763473 2.15054 7.1714 1.02449 0 
15 7.1714 0 1.02449 0.763473 2.15054 7.1714 0 1.02449 
17 8.19588 0 0 0.763473 2.15054 8.19588 0 0 
18 9.22037 1.02449 0 0.763473 2.15054 9.22037 1.02449 0 
19 9.22037 0 1.02449 0.763473 2.15054 9.22037 0 1.02449 
20 8.19588 1.02449 1.02449 0.763473 2.15054 8.19588 1.02449 1.02449 
21 10.2449 0 0 0.763473 2.15054 10.2449 0 0 
22 10.2449 1.02449 1.02449 0.763473 2.15054 10.2449 1.02449 1.02449 
23 0 2.04897 0 0.763473 2.15054 0 2.04897 0 
24 1.02449 3.07346 0 0.763473 2.15054 1.02449 3.07346 0 
25 1.02449 2.04897 1.02449 0.763473 2.15054 1.02449 2.04897 1.02449 
26 0 3.07346 1.02449 0.763473 2.15054 0 3.07346 1.02449 
27 2.04897 2.04897 0 0.763473 2.15054 2.04897 2.04897 0 
28 3.07346 3.07346 0 0.763473 2.15054 3.07346 3.07346 0 
29 3.07346 2.04897 1.02449 0.763473 2.15054 3.07346 2.04897 1.02449 
30 2.04897 3.07346 1.02449 0.763473 2.15054 2.04897 3.07346 1.02449 
31 4.09794 2.04897 0 0.763473 2.15054 4.09794 2.04897 0 
34 4.09794 3.07346 1.02449 0.763473 2.15054 4.09794 3.07346 1.02449 
32 5.12243 3.07346 0 0.763473 2.15054 5.12243 3.07346 0 
33 5.12243 2.04897 1.02449 0.763473 2.15054 5.12243 2.04897 1.02449 
35 6.14691 2.04897 0 0.763473 2.15054 6.14691 2.04897 0 
38 6.14691 3.07346 1.02449 0.763473 2.15054 6.14691 3.07346 1.02449 
36 7.1714 3.07346 0 0.763473 2.15054 7.1714 3.07346 0 
37 7.1714 2.04897 1.02449 0.763473 2.15054 7.1714 2.04897 1.02449 
39 8.19588 2.04897 0 0.763473 2.15054 8.19588 2.04897 0 
40 9.22037 3.07346 0 0.763473 2.15054 9.22037 3.07346 0 
41 9.22037 2.04897 1.02449 0.763473 2.15054 9.22037 2.04897 1.02449 
42 8.19588 3.07346 1.02449 0.763473 2.15054 8.19588 3.07346 1.02449 
43 10.2449 2.04897 0 0.763473 2.15054 10.2449 2.04897 0 
44 10.2449 3.07346 1.02449 0.763473 2.15054 10.2449 3.07346 1.02449 
45 0 4.09794 0 0.763473 2.15054 0 4.09794 0 
47 1.02449 4.09794 1.02449 0.763473 2.15054 1.02449 4.09794 1.02449 
49 2.04897 4.09794 0 0.763473 2.15054 2.04897 4.09794 0 
51 3.07346 4.09794 1.02449 0.763473 2.15054 3.07346 4.09794 1.02449 
53 4.09794 4.09794 0 0.763473 2.15054 4.09794 4.09794 0 
55 5.12243 4.09794 1.02449 0.763473 2.15054 5.12243 4.09794 1.02449 
57 6.14691 4.09794 0 0.763473 2.15054 6.14691 4.09794 0 
59 7.1714 4.09794 1.02449 0.763473 2.15054 7.1714 4.09794 1.02449 
61 8.19588 4.09794 0 0.763473 2.15054 8.19588 4.09794 0 
63 9.22037 4.09794 1.02449 0.763473 2.15054 9.22037 4.09794 1.02449 
65 10.2449 4.09794 0 0.763473 2.15054 10.2449 4.09794 0 
46 1.02449 5.12243 0 0.763473 2.15054 1.02449 5.12243 0 
48 0 5.12243 1.02449 0.763473 2.15054 0 5.12243 1.02449 
67 0 6.14691 0 0.763473 2.15054 0 6.14691 0 
69 1.02449 6.14691 1.02449 0.763473 2.15054 1.02449 6.14691 1.02449 
50 3.07346 5.12243 0 0.763473 2.15054 3.07346 5.12243 0 
52 2.04897 5.12243 1.02449 0.763473 2.15054 2.04897 5.12243 1.02449 
71 2.04897 6.14691 0 0.763473 2.15054 2.04897 6.14691 0 
73 3.07346 6.14691 1.02449 0.763473 2.15054 3.07346 6.14691 1.02449 
56 4.09794 5.12243 1.02449 0.763473 2.15054 4.09794 5.12243 1.02449 
75 4.09794 6.14691 0 0.763473 2.15054 4.09794 6.14691 0 
54 5.12243 5.12243 0 0.763473 2.15054 5.12243 5.12243 0 
60 6.14691 5.12243 1.02449 0.763473 2.15054 6.14691 5.12243 1.02449 
77 5.12243 6.14691 1.02449 0.763473 2.15054 5.12243 6.14691 1.02449 
79 6.14691 6.14691 0 0.763473 2.15054 6.14691 6.14691 0 
58 7.1714 5.12243 0 0.763473 2.15054 7.1714 5.12243 0 
81 7.1714 6.14691 1.02449 0.763473 2.15054 7.1714 6.14691 1.02449 
62 9.22037 5.12243 0 0.763473 2.15054 9.22037 5.12243 0 
64 8.19588 5.12243 1.02449 0.763473 2.15054 8.19588 5.12243 1.02449 
83 8.19588 6.14691 0 0.763473 2.15054 8.19588 6.14691 0 
85 9.22037 6.14691 1.02449 0.763473 2.15054 9.22037 6.14691 1.02449 
66 10.2449 5.12243 1.02449 0.763473 2.15054 10.2449 5.12243 1.02449 
87 10.2449 6.14691 0 0.763473 2.15054 10.2449 6.14691 0 
68 1.02449 7.1714 0 0.763473 2.15054 1.02449 7.1714 0 
70 0 7.1714 1.02449 0.763473 2.15054 0 7.1714 1.02449 
72 3.07346 7.1714 0 0.763473 2.15054 3.07346 7.1714 0 
74 2.04897 7.1714 1.02449 0.763473 2.15054 2.04897 7.1714 1.02449 
78 4.09794 7.1714 1.02449 0.763473 2.15054 4.09794 7.1714 1.02449 
76 5.12243 7.1714 0 0.763473 2.15054 5.12243 7.1714 0 
82 6.14691 7.1714 1.02449 0.763473 2.15054 6.14691 7.1714 1.02449 
80 7.1714 7.1714 0 0.763473 2.15054 7.1714 7.1714 0 
84 9.22037 7.1714 0 0.763473 2.15054 9.22037 7.1714 0 
86 8.19588 7.1714 1.02449 0.763473 2.15054 8.19588 7.1714 1.02449 
88 10.2449 7.1714 1.02449 0.763473 2.15054 10.2449 7.1714 1.02449 
89 0 0 2.04897 0.763473 2.15054 0 0 2.04897 
90 1.02449 1.02449 2.04897 0.763473 2.15054 1.02449 1.02449 2.04897 
91 1.02449 0 3.07346 0.763473 2.15054 1.02449 0 3.07346 
92 0 1.02449 3.07346 0.763473 2.15054 0 1.02449 3.07346 
93 2.04897 0 2.04897 0.763473 2.15054 2.04897 0 2.04897 
94 3.07346 1.02449 2.04897 0.763473 2.15054 3.07346 1.02449 2.04897 
95 3.07346 0 3.07346 0.763473 2.15054 3.07346 0 3.07346 
96 2.04897 1.02449 3.07346 0.763473 2.15054 2.04897 1.02449 3.07346 
97 4.09794 0 2.04897 0.763473 2.15054 4.09794 0 2.04897 
100 4.09794 1.02449 3.07346 0.763473 2.15054 4.09794 1.02449 3.07346 
98 5.12243 1.02449 2.04897 0.763473 2.15054 5.12243 1.02449 2.04897 
99 5.12243 0 3.07346 0.763473 2.15054 5.12243 0 3.07346 
101 6.14691 0 2.04897 0.763473 2.15054 6.14691 0 2.04897 
104 6.14691 1.02449 3.07346 0.763473 2.15054 6.14691 1.02449 3.07346 
102 7.1714 1.02449 2.04897 0.763473 2.15054 7.1714 1.02449 2.04897 
103 7.1714 0 3.07346 0.763473 2.15054 7.1714 0 3.07346 
105 8.19588 0 2.04897 0.763473 2.15054 8.19588 0 2.04897 
106 9.22037 1.02449 2.04897 0.763473 2.15054 9.22037 1.02449 2.04897 
107 9.22037 0 3.07346 0.763473 2.15054 9.22037 0 3.07346 
108 8.19588 1.02449 3.07346 0.763473 2.15054 8.19588 1.02449 3.07346 
109 10.2449 0 2.04897 0.763473 2.15054 10.2449 0 2.04897 
110 10.2449 1.02449 3.07346 0.763473 2.15054 10.2449 1.02449 3.07346 
111 0 2.04897 2.04897 0.763473 2.15054 0 2.04897 2.04897 
112 1.02449 3.07346 2.04897 0.763473 2.15054 1.02449 3.07346 2.04897 
113 1.02449 2.04897 3.07346 0.763473 2.15054 1.02449 2.04897 3.07346 
114 0 3.07346 3.07346 0.763473 2.15054 0 3.07346 3.07346 
115 2.04897 2.04897 2.04897 0.763473 2.15054 2.04897 2.04897 2.04897 
116 3.07346 3.07346 2.04897 0.763473 2.15054 3.07346 3.07346 2.04897 
117 3.07346 2.04897 3.07346 0.763473 2.15054 3.07346 2.04897 3.07346 
118 2.04897 3.07346 3.07346 0.763473 2.15054 2.04897 3.07346 3.07346 
119 4.09794 2.04897 2.04897 0.763473 2.15054 4.09794 2.04897 2.04897 
122 4.09794 3.07346 3.07346 0.763473 2.15054 4.09794 3.07346 3.07346 
120 5.12243 3.07346 2.04897 0.763473 2.15054 5.12243 3.07346 2.04897 
121 5.12243 2.04897 3.07346 0.763473 2.15054 5.12243 2.04897 3.07346 
123 6.14691 2.04897 2.04897 0.763473 2.15054 6.14691 2.04897 2.04897 
126 6.14691 3.07346 3.07346 0.763473 2.15054 6.14691 3.07346 3.07346 
124 7.1714 3.07346 2.04897 0.763473 2.15054 7.1714 3.07346 2.04897 
125 7.1714 2.04897 3.07346 0.763473 2.15054 7.1714 2.04897 3.07346 
127 8.19588 2.04897 2.04897 0.763473 2.15054 8.19588 2.04897 2.04897 
128 9.22037 3.07346 2.04897 0.763473 2.15054 9.22037 3.07346 2.04897 
129 9.22037 2.04897 3.07346 0.763473 2.15054 9.22037 2.04897 3.07346 
130 8.19588 3.07346 3.07346 0.763473 2.15054 8.19588 3.07346 3.07346 
131 10.2449 2.04897 2.04897 0.763473 2.15054 10.2449 2.04897 2.04897 
132 10.2449 3.07346 3.07346 0.763473 2.15054 10.2449 3.07346 3.07346 
133 0 4.09794 2.04897 0.763473 2.15054 0 4.09794 2.04897 
135 1.02449 4.09794 3.07346 0.763473 2.15054 1.02449 4.09794 3.07346 
137 2.04897 4.09794 2.04897 0.763473 2.15054 2.04897 4.09794 2.04897 
139 3.07346 4.09794 3.07346 0.763473 2.15054 3.07346 4.09794 3.07346 
141 4.09794 4.09794 2.04897 0.763473 2.15054 4.09794 4.09794 2.04897 
143 5.12243 4.09794 3.07346 0.763473 2.15054 5.12243 4.09794 3.07346 
145 6.14691 4.09794 2.04897 0.763473 2.15054 6.14691 4.09794 2.04897 
147 7.1714 4.09794 3.07346 0.763473 2.15054 7.1714 4.09794 3.07346 
149 8.19588 4.09794 2.04897 0.763473 2.15054 8.19588 4.09794 2.04897 
151 9.22037 4.09794 3.07346 0.763473 2.15054 9.22037 4.09794 3.07346 
153 10.2449 4.09794 2.04897 0.763473 2.15054 10.2449 4.09794 2.04897 
134 1.02449 5.12243 2.04897 0.763473 2.15054 1.02449 5.12243 2.04897 
136 0 5.12243 3.07346 0.763473 2.15054 0 5.12243 3.07346 
155 0 6.14691 2.04897 0.763473 2.15054 0 6.14691 2.04897 
157 1.02449 6.14691 3.07346 0.763473 2.15054 1.02449 6.14691 3.07346 
138 3.07346 5.12243 2.04897 0.763473 2.15054 3.07346 5.12243 2.04897 
140 2.04897 5.12243 3.07346 0.763473 2.15054 2.04897 5.12243 3.07346 
159 2.04897 6.14691 2.04897 0.763473 2.15054 2.04897 6.14691 2.04897 
161 3.07346 6.14691 3.07346 0.763473 2.15054 3.07346 6.14691 3.07346 
144 4.09794 5.12243 3.07346 0.763473 2.15054 4.09794 5.12243 3.07346 
163 4.09794 6.14691 2.04897 0.763473 2.15054 4.09794 6.14691 2.04897 
142 5.12243 5.12243 2.04897 0.763473 2.15054 5.12243 5.12243 2.04897 
148 6.14691 5.12243 3.07346 0.763473 2.15054 6.14691 5.12243 3.07346 
165 5.12243 6.14691 3.07346 0.763473 2.15054 5.12243 6.14691 3.07346 
167 6.14691 6.14691 2.04897 0.763473 2.15054 6.14691 6.14691 2.04897 
146 7.1714 5.12243 2.04897 0.763473 2.15054 7.1714 5.12243 2.04897 
169 7.1714 6.14691 3.07346 0.763473 2.15054 7.1714 6.14691 3.07346 
150 9.22037 5.12243 2.04897 0.763473 2.15054 9.22037 5.12243 2.04897 
152 8.19588 5.12243 3.07346 0.763473 2.15054 8.19588 5.12243 3.07346 
171 8.19588 6.14691 2.04897 0.763473 2.15054 8.19588 6.14691 2.04897 
173 9.22037 6.14691 3.07346 0.763473 2.15054 9.22037 6.14691 3.07346 
154 10.2449 5.12243 3.07346 0.763473 2.15054 10.2449 5.12243 3.07346 
175 10.2449 6.14691 2.04897 0.763473 2.15054 10.2449 6.14691 2.04897 
156 1.02449 7.1714 2.04897 0.763473 2.15054 1.02449 7.1714 2.04897 
158 0 7.1714 3.07346 0.763473 2.15054 0 7.1714 3.07346 
160 3.07346 7.1714 2.04897 0.763473 2.15054 3.07346 7.1714 2.04897 
162 2.04897 7.1714 3.07346 0.763473 2.15054 2.04897 7.1714 3.07346 
166 4.09794 7.1714 3.07346 0.763473 2.15054 4.09794 7.1714 3.07346 
164 5.12243 7.1714 2.04897 0.763473 2.15054 5.12243 7.1714 2.04897 
170 6.14691 7.1714 3.07346 0.763473 2.15054 6.14691 7.1714 3.07346 
168 7.1714 7.1714 2.04897 0.763473 2.15054 7.1714 7.1714 2.04897 
172 9.22037 7.1714 2.04897 0.763473 2.15054 9.22037 7.1714 2.04897 
174 8.19588 7.1714 3.07346 0.763473 2.15054 8.19588 7.1714 3.07346 
176 10.2449 7.1714 3.07346 0.763473 2.15054 10.2449 7.1714 3.07346 
177 0 0 4.09794 0.763473 2.15054 0 0 4.09794 
178 1.02449 1.02449 4.09794 0.763473 2.15054 1.02449 1.02449 4.09794 
179 1.02449 0 5.12243 0.763473 2.15054 1.02449 0 5.12243 
180 0 1.02449 5.12243 0.763473 2.15054 0 1.02449 5.12243 
181 2.04897 0 4.09794 0.763473 2.15054 2.04897 0 4.09794 
182 3.07346 1.02449 4.09794 0.763473 2.15054 3.07346 1.02449 4.09794 
183 3.07346 0 5.12243 0.763473 2.15054 3.07346 0 5.12243 
184 2.04897 1.02449 5.12243 0.763473 2.15054 2.04897 1.02449 5.12243 
185 4.09794 0 4.09794 0.763473 2.15054 4.09794 0 4.09794 
188 4.09794 1.02449 5.12243 0.763473 2.15054 4.09794 1.02449 5.12243 
186 5.12243 1.02449 4.09794 0.763473 2.15054 5.12243 1.02449 4.09794 
187 5.12243 0 5.12243 0.763473 2.15054 5.12243 0 5.12243 
189 6.14691 0 4.09794 0.763473 2.15054 6.14691 0 4.09794 
192 6.14691 1.02449 5.12243 0.763473 2.15054 6.14691 1.02449 5.12243 
190 7.1714 1.02449 4.09794 0.763473 2.15054 7.1714 1.02449 4.09794 
191 7.1714 0 5.12243 0.763473 2.15054 7.1714 0 5.12243 
193 8.19588 0 4.09794 0.763473 2.15054 8.19588 0 4.09794 
194 9.22037 1.02449 4.09794 0.763473 2.15054 9.22037 1.02449 4.09794 
195 9.22037 0 5.12243 0.763473 2.15054 9.22037 0 5.12243 
196 8.19588 1.02449 5.12243 0.763473 2.15054 8.19588 1.02449 5.12243 
197 10.2449 0 4.09794 0.763473 2.15054 10.2449 0 4.09794 
198 10.2449 1.02449 5.12243 0.763473 2.15054 10.2449 1.02449 5.12243 
199 0 2.04897 4.09794 0.763473 2.15054 0 2.04897 4.09794 
200 1.02449 3.07346 4.09794 0.763473 2.15054 1.02449 3.07346 4.09794 
201 1.02449 2.04897 5.12243 0.763473 2.15054 1.02449 2.04897 5.12243 
202 0 3.07346 5.12243 0.763473 2.15054 0 3.07346 5.12243 
203 2.04897 2.04897 4.09794 0.763473 2.15054 2.04897 2.04897 4.09794 
204 3.07346 3.07346 4.09794 0.763473 2.15054 3.07346 3.07346 4.09794 
205 3.07346 2.04897 5.12243 0.763473 2.15054 3.07346 2.04897 5.12243 
206 2.04897 3.07346 5.12243 0.763473 2.15054 2.04897 3.07346 5.12243 
207 4.09794 2.04897 4.09794 0.763473 2.15054 4.09794 2.04897 4.09794 
210 4.09794 3.07346 5.12243 0.763473 2.15054 4.09794 3.07346 5.12243 
208 5.12243 3.07346 4.09794 0.763473 2.15054 5.12243 3.07346 4.09794 
209 5.12243 2.04897 5.12243 0.763473 2.15054 5.12243 2.04897 5.12243 
211 6.14691 2.04897 4.09794 0.763473 2.15054 6.14691 2.04897 4.09794 
214 6.14691 3.07346 5.12243 0.763473 2.15054 6.14691 3.07346 5.12243 
212 7.1714 3.07346 4.09794 0.763473 2.15054 7.1714 3.07346 4.09794 
213 7.1714 2.04897 5.12243 0.763473 2.15054 7.1714 2.04897 5.12243 
215 8.19588 2.04897 4.09794 0.763473 2.15054 8.19588 2.04897 4.09794 
216 9.22037 3.07346 4.09794 0.763473 2.15054 9.22037 3.07346 4.09794 
217 9.22037 2.04897 5.12243 0.763473 2.15054 9.22037 2.04897 5.12243 
218 8.19588 3.07346 5.12243 0.763473 2.15054 8.19588 3.07346 5.12243 
219 10.2449 2.04897 4.09794 0.763473 2.15054 10.2449 2.04897 4.09794 
220 10.2449 3.07346 5.12243 0.763473 2.15054 10.2449 3.07346 5.12243 
221 0 4.09794 4.09794 0.763473 2.15054 0 4.09794 4.09794 
223 1.02449 4.09794 5.12243 0.763473 2.15054 1.02449 4.09794 5.12243 
225 2.04897 4.09794 4.09794 0.763473 2.15054 2.04897 4.09794 4.09794 
227 3.07346 4.09794 5.12243 0.763473 2.15054 3.07346 4.09794 5.12243 
229 4.09794 4.09794 4.09794 0.763473 2.15054 4.09794 4.09794 4.09794 
231 5.12243 4.09794 5.12243 0.763473 2.15054 5.12243 4.09794 5.12243 
233 6.14691 4.09794 4.09794 0.763473 2.15054 6.14691 4.09794 4.09794 
235 7.1714 4.09794 5.12243 0.763473 2.15054 7.1714 4.09794 5.12243 
237 8.19588 4.09794 4.09794 0.763473 2.15054 8.19588 4.09794 4.09794 
239 9.22037 4.09794 5.12243 0.763473 2.15054 9.22037 4.09794 5.12243 
241 10.2449 4.09794 4.09794 0.763473 2.15054 10.2449 4.09794 4.09794 
222 1.02449 5.12243 4.09794 0.763473 2.15054 1.02449 5.12243 4.09794 
224 0 5.12243 5.12243 0.763473 2.15054 0 5.12243 5.12243 
243 0 6.14691 4.09794 0.763473 2.15054 0 6.14691 4.09794 
245 1.02449 6.14691 5.12243 0.763473 2.15054 1.02449 6.14691 5.12243 
226 3.07346 5.12243 4.09794 0.763473 2.15054 3.07346 5.12243 4.09794 
228 2.04897 5.12243 5.12243 0.763473 2.15054 2.04897 5.12243 5.12243 
247 2.04897 6.14691 4.09794 0.763473 2.15054 2.04897 6.14691 4.09794 
249 3.07346 6.14691 5.12243 0.763473 2.15054 3.07346 6.14691 5.12243 
232 4.09794 5.12243 5.12243 0.763473 2.15054 4.09794 5.12243 5.12243 
251 4.09794 6.14691 4.09794 0.763473 2.15054 4.09794 6.14691 4.09794 
230 5.12243 5.12243 4.09794 0.763473 2.15054 5.12243 5.12243 4.09794 
236 6.14691 5.12243 5.12243 0.763473 2.15054 6.14691 5.12243 5.12243 
253 5.12243 6.14691 5.12243 0.763473 2.15054 5.12243 6.14691 5.12243 
255 6.14691 6.14691 4.09794 0.763473 2.15054 6.14691 6.14691 4.09794 
234 7.1714 5.12243 4.09794 0.763473 2.15054 7.1714 5.12243 4.09794 
257 7.1714 6.14691 5.12243 0.763473 2.15054 7.1714 6.14691 5.12243 
238 9.22037 5.12243 4.09794 0.763473 2.15054 9.22037 5.12243 4.09794 
240 8.19588 5.12243 5.12243 0.763473 2.15054 8.19588 5.12243 5.12243 
259 8.19588 6.14691 4.09794 0.763473 2.15054 8.19588 6.14691 4.09794 
261 9.22037 6.14691 5.12243 0.763473 2.15054 9.22037 6.14691 5.12243 
242 10.2449 5.12243 5.12243 0.763473 2.15054 10.2449 5.12243 5.12243 
263 10.2449 6.14691 4.09794 0.763473 2.15054 10.2449 6.14691 4.09794 
244 1.02449 7.1714 4.09794 0.763473 2.15054 1.02449 7.1714 4.09794 
246 0 7.1714 5.12243 0.763473 2.15054 0 7.1714 5.12243 
248 3.07346 7.1714 4.09794 0.763473 2.15054 3.07346 7.1714 4.09794 
250 2.04897 7.1714 5.12243 0.763473 2.15054 2.04897 7.1714 5.12243 
254 4.09794 7.1714 5.12243 0.763473 2.15054 4.09794 7.1714 5.12243 
252 5.12243 7.1714 4.09794 0.763473 2.15054 5.12243 7.1714 4.09794 
258 6.14691 7.1714 5.12243 0.763473 2.15054 6.14691 7.1714 5.12243 
256 7.1714 7.1714 4.09794 0.763473 2.15054 7.1714 7.1714 4.09794 
260 9.22037 7.1714 4.09794 0.763473 2.15054 9.22037 7.1714 4.09794 
262 8.19588 7.1714 5.12243 0.763473 2.15054 8.19588 7.1714 5.12243 
264 10.2449 7.1714 5.12243 0.763473 2.15054 10.2449 7.1714 5.12243 
265 0 0 6.14691 0.763473 2.15054 0 0 6.14691 
266 1.02449 1.02449 6.14691 0.763473 2.15054 1.02449 1.02449 6.14691 
267 1.02449 0 7.1714 0.763473 2.15054 1.02449 0 7.1714 
268 0 1.02449 7.1714 0.763473 2.15054 0 1.02449 7.1714 
269 2.04897 0 6.14691 0.763473 2.15054 2.04897 0 6.14691 
270 3.07346 1.02449 6.14691 0.763473 2.15054 3.07346 1.02449 6.14691 
271 3.07346 0 7.1714 0.763473 2.15054 3.07346 0 7.1714 
272 2.04897 1.02449 7.1714 0.763473 2.15054 2.04897 1.02449 7.1714 
273 4.09794 0 6.14691 0.763473 2.15054 4.09794 0 6.14691 
276 4.09794 1.02449 7.1714 0.763473 2.15054 4.09794 1.02449 7.1714 
274 5.12243 1.02449 6.14691 0.763473 2.15054 5.12243 1.02449 6.14691 
275 5.12243 0 7.1714 0.763473 2.15054 5.12243 0 7.1714 
277 6.14691 0 6.14691 0.763473 2.15054 6.14691 0 6.14691 
280 6.14691 1.02449 7.1714 0.763473 2.15054 6.14691 1.02449 7.1714 
278 7.1714 1.02449 6.14691 0.763473 2.15054 7.1714 1.02449 6.14691 
279 7.1714 0 7.1714 0.763473 2.15054 7.1714 0 7.1714 
281 8.19588 0 6.14691 0.763473 2.15054 8.19588 0 6.14691 
282 9.22037 1.02449 6.14691 0.763473 2.15054 9.22037 1.02449 6.14691 
283 9.22037 0 7.1714 0.763473 2.15054 9.22037 0 7.1714 
284 8.19588 1.02449 7.1714 0.763473 2.15054 8.19588 1.02449 7.1714 
285 10.2449 0 6.14691 0.763473 2.15054 10.2449 0 6.14691 
286 10.2449 1.02449 7.1714 0.763473 2.15054 10.2449 1.02449 7.1714 
287 0 2.04897 6.14691 0.763473 2.15054 0 2.04897 6.14691 
288 1.02449 3.07346 6.14691 0.763473 2.15054 1.02449 3.07346 6.14691 
289 1.02449 2.04897 7.1714 0.763473 2.15054 1.02449 2.04897 7.1714 
290 0 3.07346 7.1714 0.763473 2.15054 0 3.07346 7.1714 
291 2.04897 2.04897 6.14691 0.763473 2.15054 2.04897 2.04897 6.14691 
292 3.07346 3.07346 6.14691 0.763473 2.15054 3.07346 3.07346 6.14691 
293 3.07346 2.04897 7.1714 0.763473 2.15054 3.07346 2.04897 7.1714 
294 2.04897 3.07346 7.1714 0.763473 2.15054 2.04897 3.07346 7.1714 
295 4.09794 2.04897 6.14691 0.763473 2.15054 4.09794 2.04897 6.14691 
298 4.09794 3.07346 7.1714 0.763473 2.15054 4.09794 3.07346 7.1714 
296 5.12243 3.07346 6.14691 0.763473 2.15054 5.12243 3.07346 6.14691 
297 5.12243 2.04897 7.1714 0.763473 2.15054 5.12243 2.04897 7.1714 
299 6.14691 2.04897 6.14691 0.763473 2.15054 6.14691 2.04897 6.14691 
302 6.14691 3.07346 7.1714 0.763473 2.15054 6.14691 3.07346 7.1714 
300 7.1714 3.07346 6.14691 0.763473 2.15054 7.1714 3.07346 6.14691 
301 7.1714 2.04897 7.1714 0.763473 2.15054 7.1714 2.04897 7.1714 
303 8.19588 2.04897 6.14691 0.763473 2.15054 8.19588 2.04897 6.14691 
304 9.22037 3.07346 6.14691 0.763473 2.15054 9.22037 3.07346 6.14691 
305 9.22037 2.04897 7.1714 0.763473 2.15054 9.22037 2.04897 7.1714 
306 8.19588 3.07346 7.1714 0.763473 2.15054 8.19588 3.07346 7.1714 
307 10.2449 2.04897 6.14691 0.763473 2.15054 10.2449 2.04897 6.14691 
308 10.2449 3.07346 7.1714 0.763473 2.15054 10.2449 3.07346 7.1714 
309 0 4.09794 6.14691 0.763473 2.15054 0 4.09794 6.14691 
311 1.02449 4.09794 7.1714 0.763473 2.15054 1.02449 4.09794 7.1714 
313 2.04897 4.09794 6.14691 0.763473 2.15054 2.04897 4.09794 6.14691 
315 3.07346 4.09794 7.1714 0.763473 2.15054 3.07346 4.09794 7.1714 
317 4.09794 4.09794 6.14691 0.763473 2.15054 4.09794 4.09794 6.14691 
319 5.12243 4.09794 7.1714 0.763473 2.15054 5.12243 4.09794 7.1714 
321 6.14691 4.09794 6.14691 0.763473 2.15054 6.14691 4.09794 6.14691 
323 7.1714 4.09794 7.1714 0.763473 2.15054 7.1714 4.09794 7.1714 
325 8.19588 4.09794 6.14691 0.763473 2.15054 8.19588 4.09794 6.14691 
327 9.22037 4.09794 7.1714 0.763473 2.15054 9.22037 4.09794 7.1714 
329 10.2449 4.09794 6.14691 0.763473 2.15054 10.2449 4.09794 6.14691 
310 1.02449 5.12243 6.14691 0.763473 2.15054 1.02449 5.12243 6.14691 
312 0 5.12243 7.1714 0.763473 2.15054 0 5.12243 7.1714 
331 0 6.14691 6.14691 0.763473 2.15054 0 6.14691 6.14691 
333 1.02449 6.14691 7.1714 0.763473 2.15054 1.02449 6.14691 7.1714 
314 3.07346 5.12243 6.14691 0.763473 2.15054 3.07346 5.12243 6.14691 
316 2.04897 5.12243 7.1714 0.763473 2.15054 2.04897 5.12243 7.1714 
335 2.04897 6.14691 6.14691 0.763473 2.15054 2.04897 6.14691 6.14691 
337 3.07346 6.14691 7.1714 0.763473 2.15054 3.07346 6.14691 7.1714 
320 4.09794 5.12243 7.1714 0.763473 2.15054 4.09794 5.12243 7.1714 
339 4.09794 6.14691 6.14691 0.763473 2.15054 4.09794 6.14691 6.14691 
318 5.12243 5.12243 6.14691 0.763473 2.15054 5.12243 5.12243 6.14691 
324 6.14691 5.12243 7.1714 0.763473 2.15054 6.14691 5.12243 7.1714 
341 5.12243 6.14691 7.1714 0.763473 2.15054 5.12243 6.14691 7.1714 
343 6.14691 6.14691 6.14691 0.763473 2.15054 6.14691 6.14691 6.14691 
322 7.1714 5.12243 6.14691 0.763473 2.15054 7.1714 5.12243 6.14691 
345 7.1714 6.14691 7.1714 0.763473 2.15054 7.1714 6.14691 7.1714 
326 9.22037 5.12243 6.14691 0.763473 2.15054 9.22037 5.12243 6.14691 
328 8.19588 5.12243 7.1714 0.763473 2.15054 8.19588 5.12243 7.1714 
347 8.19588 6.14691 6.14691 0.763473 2.15054 8.19588 6.14691 6.14691 
349 9.22037 6.14691 7.1714 0.763473 2.15054 9.22037 6.14691 7.1714 
330 10.2449 5.12243 7.1714 0.763473 2.15054 10.2449 5.12243 7.1714 
351 10.2449 6.14691 6.14691 0.763473 2.15054 10.2449 6.14691 6.14691 
332 1.02449 7.1714 6.14691 0.763473 2.15054 1.02449 7.1714 6.14691 
334 0 7.1714 7.1714 0.763473 2.15054 0 7.1714 7.1714 
336 3.07346 7.1714 6.14691 0.763473 2.15054 3.07346 7.1714 6.14691 
338 2.04897 7.1714 7.1714 0.763473 2.15054 2.04897 7.1714 7.1714 
342 4.09794 7.1714 7.1714 0.763473 2.15054 4.09794 7.1714 7.1714 
340 5.12243 7.1714 6.14691 0.763473 2.15054 5.12243 7.1714 6.14691 
346 6.14691 7.1714 7.1714 0.763473 2.15054 6.14691 7.1714 7.1714 
344 7.1714 7.1714 6.14691 0.763473 2.15054 7.1714 7.1714 6.14691 
348 9.22037 7.1714 6.14691 0.763473 2.15054 9.22037 7.1714 6.14691 
350 8.19588 7.1714 7.1714 0.763473 2.15054 8.19588 7.1714 7.1714 
352 10.2449 7.1714 7.1714 0.763473 2.15054 10.2449 7.1714 7.1714 
353 0 0 8.19588 0.763473 2.15054 0 0 8.19588 
354 1.02449 1.02449 8.19588 0.763473 2.15054 1.02449 1.02449 8.19588 
357 2.04897 0 8.19588 0.763473 2.15054 2.04897 0 8.19588 
358 3.07346 1.02449 8.19588 0.763473 2.15054 3.07346 1.02449 8.19588 
361 4.09794 0 8.19588 0.763473 2.15054 4.09794 0 8.19588 
362 5.12243 1.02449 8.19588 0.763473 2.15054 5.12243 1.02449 8.19588 
365 6.14691 0 8.19588 0.763473 2.15054 6.14691 0 8.19588 
366 7.1714 1.02449 8.19588 0.763473 2.15054 7.1714 1.02449 8.19588 
369 8.19588 0 8.19588 0.763473 2.15054 8.19588 0 8.19588 
370 9.22037 1.02449 8.19588 0.763473 2.15054 9.22037 1.02449 8.19588 
373 10.2449 0 8.19588 0.763473 2.15054 10.2449 0 8.19588 
375 0 2.04897 8.19588 0.763473 2.15054 0 2.04897 8.19588 
376 1.02449 3.07346 8.19588 0.763473 2.15054 1.02449 3.07346 8.19588 
379 2.04897 2.04897 8.19588 0.763473 2.15054 2.04897 2.04897 8.19588 
380 3.07346 3.07346 8.19588 0.763473 2.15054 3.07346 3.07346 8.19588 
383 4.09794 2.04897 8.19588 0.763473 2.15054 4.09794 2.04897 8.19588 
384 5.12243 3.07346 8.19588 0.763473 2.15054 5.12243 3.07346 8.19588 
387 6.14691 2.04897 8.19588 0.763473 2.15054 6.14691 2.04897 8.19588 
388 7.1714 3.07346 8.19588 0.763473 2.15054 7.1714 3.07346 8.19588 
391 8.19588 2.04897 8.19588 0.763473 2.15054 8.19588 2.04897 8.19588 
392 9.22037 3.07346 8.19588 0.763473 2.15054 9.22037 3.07346 8.19588 
395 10.2449 2.04897 8.19588 0.763473 2.15054 10.2449 2.04897 8.19588 
397 0 4.09794 8.19588 0.763473 2.15054 0 4.09794 8.19588 
401 2.04897 4.09794 8.19588 0.763473 2.15054 2.04897 4.09794 8.19588 
405 4.09794 4.09794 8.19588 0.763473 2.15054 4.09794 4.09794 8.19588 
409 6.14691 4.09794 8.19588 0.763473 2.15054 6.14691 4.09794 8.19588 
413 8.19588 4.09794 8.19588 0.763473 2.15054 8.19588 4.09794 8.19588 
417 10.2449 4.09794 8.19588 0.763473 2.15054 10.2449 4.09794 8.19588 
398 1.02449 5.12243 8.19588 0.763473 2.15054 1.02449 5.12243 8.19588 
419 0 6.14691 8.19588 0.763473 2.15054 0 6.14691 8.19588 
402 3.07346 5.12243 8.19588 0.763473 2.15054 3.07346 5.12243 8.19588 
423 2.04897 6.14691 8.19588 0.763473 2.15054 2.04897 6.14691 8.19588 
427 4.09794 6.14691 8.19588 0.763473 2.15054 4.09794 6.14691 8.19588 
406 5.12243 5.12243 8.19588 0.763473 2.15054 5.12243 5.12243 8.19588 
431 6.14691 6.14691 8.19588 0.763473 2.15054 6.14691 6.14691 8.19588 
410 7.1714 5.12243 8.19588 0.763473 2.15054 7.1714 5.12243 8.19588 
414 9.22037 5.12243 8.19588 0.763473 2.15054 9.22037 5.12243 8.19588 
435 8.19588 6.14691 8.19588 0.763473 2.15054 8.19588 6.14691 8.19588 
439 10.2449 6.14691 8.19588 0.763473 2.15054 10.2449 6.14691 8.19588 
420 1.02449 7.1714 8.19588 0.763473 2.15054 1.02449 7.1714 8.19588 
424 3.07346 7.1714 8.19588 0.763473 2.15054 3.07346 7.1714 8.19588 
428 5.12243 7.1714 8.19588 0.763473 2.15054 5.12243 7.1714 8.19588 
432 7.1714 7.1714 8.19588 0.763473 2.15054 7.1714 7.1714 8.19588 
436 9.22037 7.1714 8.19588 0.763473 2.15054 9.22037 7.1714 8.19588 
355 1.02449 0 9.22037 0.763473 2.15054 1.02449 0 9.22037 
356 0 1.02449 9.22037 0.763473 2.15054 0 1.02449 9.22037 
441 0 0 10.2449 0.763473 2.15054 0 0 10.2449 
442 1.02449 1.02449 10.2449 0.763473 2.15054 1.02449 1.02449 10.2449 
359 3.07346 0 9.22037 0.763473 2.15054 3.07346 0 9.22037 
360 2.04897 1.02449 9.22037 0.763473 2.15054 2.04897 1.02449 9.22037 
443 2.04897 0 10.2449 0.763473 2.15054 2.04897 0 10.2449 
444 3.07346 1.02449 10.2449 0.763473 2.15054 3.07346 1.02449 10.2449 
364 4.09794 1.02449 9.22037 0.763473 2.15054 4.09794 1.02449 9.22037 
445 4.09794 0 10.2449 0.763473 2.15054 4.09794 0 10.2449 
363 5.12243 0 9.22037 0.763473 2.15054 5.12243 0 9.22037 
368 6.14691 1.02449 9.22037 0.763473 2.15054 6.14691 1.02449 9.22037 
446 5.12243 1.02449 10.2449 0.763473 2.15054 5.12243 1.02449 10.2449 
447 6.14691 0 10.2449 0.763473 2.15054 6.14691 0 10.2449 
367 7.1714 0 9.22037 0.763473 2.15054 7.1714 0 9.22037 
448 7.1714 1.02449 10.2449 0.763473 2.15054 7.1714 1.02449 10.2449 
371 9.22037 0 9.22037 0.763473 2.15054 9.22037 0 9.22037 
372 8.19588 1.02449 9.22037 0.763473 2.15054 8.19588 1.02449 9.22037 
449 8.19588 0 10.2449 0.763473 2.15054 8.19588 0 10.2449 
450 9.22037 1.02449 10.2449 0.763473 2.15054 9.22037 1.02449 10.2449 
374 10.2449 1.02449 9.22037 0.763473 2.15054 10.2449 1.02449 9.22037 
451 10.2449 0 10.2449 0.763473 2.15054 10.2449 0 10.2449 
377 1.02449 2.04897 9.22037 0.763473 2.15054 1.02449 2.04897 9.22037 
378 0 3.07346 9.22037 0.763473 2.15054 0 3.07346 9.22037 
452 0 2.04897 10.2449 0.763473 2.15054 0 2.04897 10.2449 
453 1.02449 3.07346 10.2449 0.763473 2.15054 1.02449 3.07346 10.2449 
381 3.07346 2.04897 9.22037 0.763473 2.15054 3.07346 2.04897 9.22037 
382 2.04897 3.07346 9.22037 0.763473 2.15054 2.04897 3.07346 9.22037 
454 2.04897 2.04897 10.2449 0.763473 2.15054 2.04897 2.04897 10.2449 
455 3.07346 3.07346 10.2449 0.763473 2.15054 3.07346 3.07346 10.2449 
386 4.09794 3.07346 9.22037 0.763473 2.15054 4.09794 3.07346 9.22037 
456 4.09794 2.04897 10.2449 0.763473 2.15054 4.09794 2.04897 10.2449 
385 5.12243 2.04897 9.22037 0.763473 2.15054 5.12243 2.04897 9.22037 
390 6.14691 3.07346 9.22037 0.763473 2.15054 6.14691 3.07346 9.22037 
457 5.12243 3.07346 10.2449 0.763473 2.15054 5.12243 3.07346 10.2449 
458 6.14691 2.04897 10.2449 0.763473 2.15054 6.14691 2.04897 10.2449 
389 7.1714 2.04897 9.22037 0.763473 2.15054 7.1714 2.04897 9.22037 
459 7.1714 3.07346 10.2449 0.763473 2.15054 7.1714 3.07346 10.2449 
393 9.22037 2.04897 9.22037 0.763473 2.15054 9.22037 2.04897 9.22037 
394 8.19588 3.07346 9.22037 0.763473 2.15054 8.19588 3.07346 9.22037 
460 8.19588 2.04897 10.2449 0.763473 2.15054 8.19588 2.04897 10.2449 
461 9.22037 3.07346 10.2449 0.763473 2.15054 9.22037 3.07346 10.2449 
396 10.2449 3.07346 9.22037 0.763473 2.15054 10.2449 3.07346 9.22037 
462 10.2449 2.04897 10.2449 0.763473 2.15054 10.2449 2.04897 10.2449 
399 1.02449 4.09794 9.22037 0.763473 2.15054 1.02449 4.09794 9.22037 
463 0 4.09794 10.2449 0.763473 2.15054 0 4.09794 10.2449 
403 3.07346 4.09794 9.22037 0.763473 2.15054 3.07346 4.09794 9.22037 
465 2.04897 4.09794 10.2449 0.763473 2.15054 2.04897 4.09794 10.2449 
467 4.09794 4.09794 10.2449 0.763473 2.15054 4.09794 4.09794 10.2449 
407 5.12243 4.09794 9.22037 0.763473 2.15054 5.12243 4.09794 9.22037 
469 6.14691 4.09794 10.2449 0.763473 2.15054 6.14691 4.09794 10.2449 
411 7.1714 4.09794 9.22037 0.763473 2.15054 7.1714 4.09794 9.22037 
415 9.22037 4.09794 9.22037 0.763473 2.15054 9.22037 4.09794 9.22037 
471 8.19588 4.09794 10.2449 0.763473 2.15054 8.19588 4.09794 10.2449 
473 10.2449 4.09794 10.2449 0.763473 2.15054 10.2449 4.09794 10.2449 
400 0 5.12243 9.22037 0.763473 2.15054 0 5.12243 9.22037 
421 1.02449 6.14691 9.22037 0.763473 2.15054 1.02449 6.14691 9.22037 
464 1.02449 5.12243 10.2449 0.763473 2.15054 1.02449 5.12243 10.2449 
474 0 6.14691 10.2449 0.763473 2.15054 0 6.14691 10.2449 
404 2.04897 5.12243 9.22037 0.763473 2.15054 2.04897 5.12243 9.22037 